% Model:              cell.mph
% Version:            COMSOL 5.0.0.243
% Date:               Nov 18 2019, 16:22
% Dimension:          3
% Nodes:              24521
% Expressions:        3
% Description:        Potentiel électrique, Potentiel électrique, Potentiel électrique
% Length unit:        µm
% x                       y                        z                        V (V)                    V2 (V)                   V3 (V)
0                         0                        0                        0                        0                        0
0                         0                        10.867812457913152       -39.021407027971755      0.08482806148960453      7.556708475321036E-7
0                         0                        21.735624915826303       -78.0428140557771        0.1696561229788753       1.5113416945365887E-6
0                         0                        33.220245579049234       -119.27890082068795      0.2592986441002477       2.3099010160398605E-6
0                         0                        44.70486624227217        -160.51498758449654      0.34894116521928464      3.108460309864434E-6
0                         0                        55.09415857587777        -197.81824492429604      0.43003416643073467      3.83085814168787E-6
0                         0                        65.48345090948335        -235.12150214735405      0.5111271673853889       4.553257990122127E-6
0                         0                        74.01588172142128        -265.75760905183057      0.5777265485795465       5.146523351190333E-6
0                         0                        82.54831253335921        -296.39372557837737      0.6443259510022403       5.739571916225175E-6
0                         0                        89.0633522659562         -319.7863601271798       0.6951788565968666       6.191049537397629E-6
0                         0                        95.57839199855317        -343.17924113827644      0.7460323058147135       6.637065933042153E-6
0                         0                        100.48995917467839       -360.8153614877647       0.7843712364671834       6.958655823509984E-6
0                         0                        105.40152635080364       -378.45365279424954      0.8227149553537484       7.232320393549841E-6
0                         0                        109.12450928247257       -391.8274764196123       0.8517883120041088       7.352875282324507E-6
0                         0                        112.84749221414154       -405.2098502438608       0.8808805255573343       7.28558707877987E-6
0                         0                        115.82308641134631       -415.91825180012347      0.9041601297903071       6.957722171536207E-6
0                         0                        118.79868060855108       -426.64556816411607      0.9274814438848366       6.218147325286059E-6
0                         0                        121.3308002222682        -435.7955603220058       0.9473742993174379       5.125206308787117E-6
0                         0                        123.86291983598532       -444.9700658992643       0.967321200603255        3.505487838912043E-6
0                         0                        125.93145991799268       -452.4809637837848       0.9836516301608577       1.8392574734533485E-6
0                         0                        128.00000000000003       -460                     1                        0
0                         0                        129.99999999999997       -460                     1                        0
0                         0                        132.42404374066442       -460.0605001336452       0.9994085713207814       5.038747364423506E-4
0                         0                        134.84808748132895       -460.1254708044519       0.9988278826474021       0.0010070375553713764
0                         0                        138.11827332836265       -460.2253157224313       0.9980737776313431       0.001683906078337135
0                         0                        141.38845917539635       -460.33909910494106      0.9973531156402614       0.002358584712207
0                         0                        145.67119564749046       -460.50153262875256      0.996441487703527        0.0032400731587485785
0                         0                        149.95393211958464       -460.6720700509157       0.995549276488994        0.004120307372101594
0                         0                        155.5725377938377        -460.9007325220179       0.9943905771640261       0.0052743439790548675
0                         0                        161.19114346809076       -461.13107656631917      0.9932359037355704       0.006428122496420023
0                         0                        168.7774467692304        -461.442682678984        0.9916782705671772       0.007985876087828
0                         0                        176.3637500703701        -461.7544398588414       0.9901209989782968       0.009543606558964393
0                         0                        186.45596029105607       -462.1692143210169       0.9880494197843177       0.01161588063717824
0                         0                        196.54817051174206       -462.5839917259          0.9859778476274016       0.013688154269378028
0                         0                        208.62440344580153       -463.080310165815        0.9834990264523186       0.016167815149116617
0                         0                        220.700636379861         -463.57662860581246      0.9810202052765739       0.018647476029284293
0                         0                        233.20231899344037       -464.0904325055635       0.9784540544037607       0.021214496182746925
0                         0                        245.7040016070197        -464.60423640459476      0.9758879035291076       0.023781516336348004
0                         0                        258.2154080097172        -465.118439939383        0.9733197567060181       0.026350533114222963
0                         0                        270.7268144124147        -465.63264347420596      0.9707516098829512       0.028919549892101267
0                         0                        283.2382208151122        -466.1468470090469       0.9681834630598968       0.031488566669976494
0                         0                        295.74962721780975       -466.66105054383803      0.9656153162367528       0.03405758344784992
0                         0                        308.26103362050725       -467.1752540786308       0.9630471694135787       0.03662660022571914
0                         0                        320.77244002320475       -467.6894576134354       0.96047902259037         0.03919561700358454
0                         0                        333.28384642590214       -468.2036611482909       0.957910875767207        0.04176463378144984
0                         0                        345.79525282859964       -468.71786468317447      0.955342728944059        0.04433365055931792
0                         0                        358.3066592312972        -469.23206821816024      0.9527745821209419       0.04690266733717842
0                         0                        370.81806563399465       -469.74627175319847      0.9502064352978775       0.04947168411503854
0                         0                        383.32947203669215       -470.260475288371        0.9476382884748823       0.052040700892892734
0                         0                        395.84087843938966       -470.7746788235954       0.9450701416519038       0.05460971767074447
0                         0                        408.3522848420872        -471.2888823587581       0.9425019948288922       0.05717873444860021
0                         0                        420.8636912447847        -471.80308589387283      0.9399338480058407       0.059747751226457146
0                         0                        433.37509764748205       -472.3172894288521       0.9373657011826929       0.06231676800431756
0                         0                        445.88650405017944       -472.8314929637395       0.9347975543595057       0.06488578478218021
0                         0                        458.397910452877         -473.3456964985307       0.9322294075363048       0.06745480156004591
0                         0                        470.9093168555745        -473.8599000332466       0.9296612607131385       0.0700238183379146
0                         0                        483.420723258272         -474.37410356794         0.9270931138900572       0.07259283511578393
0                         0                        495.9321296609695        -474.88830710260703      0.9245249670670833       0.07516185189365514
0                         0                        508.443536063667         -475.402510637344        0.921956820244188        0.07773086867152652
0                         0                        520.9549424663645        -475.9167141720854       0.9193886734214392       0.08029988544939891
0                         0                        533.4663488690621        -476.43091770684765      0.9168205265986258       0.08286890222727748
0                         0                        545.9777552717596        -476.9451212416101       0.9142523797757472       0.08543791900516554
0                         0                        558.489161674457         -477.45932477635154      0.9116842329528094       0.08800693578306139
0                         0                        571.0005680771544        -477.9735283110505       0.9091160861298521       0.09057595256096883
0                         0                        583.511974479852         -478.4877318456807       0.9065479393069469       0.09314496933889525
0                         0                        596.0233808825496        -479.0019353802826       0.9039797924840316       0.0957139861168303
0                         0                        608.5347872852469        -479.51613891484595      0.9014116456610722       0.09828300289477866
0                         0                        621.0461936879443        -480.0303424493196       0.8988434988381098       0.10085201967275316
0                         0                        633.5576000906419        -480.5445459836235       0.8962753520151145       0.1034210364507735
0                         0                        646.0690064933394        -481.05874951780737      0.8937072051920857       0.10599005322882459
0                         0                        658.5804128960369        -481.5729530519045       0.8911390583690048       0.10855907000689521
0                         0                        671.0918192987343        -482.0871565861145       0.8885709115458926       0.11112808678493279
0                         0                        683.6032257014319        -482.60136012056984      0.8860027647227626       0.11369710356290302
0                         0                        696.1146321041294        -483.11556365518805      0.8834346178996181       0.11626612034082874
0                         0                        708.626038506827         -483.6297671898845       0.880866471076469        0.11883513711873328
0                         0                        721.1374449095246        -484.14397072462276      0.8782983242533182       0.12140415389662652
0                         0                        733.6488513122221        -484.6581742593759       0.8757301774301677       0.12397317067451578
0                         0                        746.1602577149196        -485.17237779413733      0.8731620306070169       0.12654218745240275
0                         0                        758.671664117617         -485.6865813289016       0.8705938837838663       0.12911120423028885
0                         0                        771.1830705203142        -486.2007848636677       0.8680257369607158       0.13168022100817445
0                         0                        783.6944769230118        -486.7149883984343       0.8654575901375654       0.13424923778606
0                         0                        796.2058833257095        -487.22919193320143      0.8628894433144152       0.1368182545639454
0                         0                        808.7172897284066        -487.7433954679684       0.8603212964912648       0.13938727134183068
0                         0                        821.228696131104         -488.2575990027354       0.8577531496681142       0.14195628811971597
0                         0                        833.7401025338016        -488.7718025375024       0.855185002844964        0.14452530489760135
0                         0                        846.2515089364992        -489.2860060722696       0.8526168560218136       0.14709432167548667
0                         0                        858.7629153391966        -489.80020960703683      0.8500487091986637       0.14966333845337199
0                         0                        871.2743217418941        -490.3144131418044       0.847480562375514        0.15223235523125725
0                         0                        883.7857281445918        -490.828616676572        0.8449124155523642       0.15480137200914262
0                         0                        896.2971345472893        -491.3428202113396       0.842344268729214        0.1573703887870279
0                         0                        908.8085409499867        -491.857023746107        0.8397761219060642       0.1599394055649132
0                         0                        921.319947352684         -492.3712272808744       0.8372079750829141       0.16250842234279847
0                         0                        933.8313537553815        -492.8854308156416       0.8346398282597638       0.16507743912068384
0                         0                        946.3427601580789        -493.3996343504087       0.8320716814366131       0.16764645589856908
0                         0                        958.8541665607765        -493.91383788517595      0.8295035346134633       0.17021547267645448
0                         0                        971.3655729634742        -494.4280414199433       0.8269353877903132       0.1727844894543398
0                         0                        983.8769793661716        -494.94224495471053      0.8243672409671632       0.17535350623222512
0                         0                        996.3883857688691        -495.456448489478        0.821799094144013        0.17792252301011044
0                         0                        1008.8997921715666       -495.97065202424534      0.8192309473208631       0.18049153978799576
0                         0                        1021.4111985742641       -496.4848555590128       0.8166628004977132       0.183060556565881
0                         0                        1033.9226049769616       -496.99905909378003      0.8140946536745629       0.1856295733437664
0                         0                        1046.434011379659        -497.5132626285473       0.8115265068514128       0.1881985901216517
0                         0                        1058.9454177823563       -498.0274661633146       0.8089583600282628       0.190767606899537
0                         0                        1071.4568241850538       -498.541669698082        0.8063902132051126       0.19333662367742233
0                         0                        1083.9682305877513       -499.05587323284925      0.8038220663819625       0.19590564045530767
0                         0                        1096.4796369904486       -499.5700767676166       0.8012539195588123       0.19847465723319294
0                         0                        1108.9910433931461       -500.0842803023839       0.7986857727356624       0.20104367401107825
0                         0                        1121.5024497958436       -500.5984838371513       0.7961176259125123       0.20361269078896355
0                         0                        1134.0138561985411       -501.1126873719185       0.7935494790893622       0.20618170756684892
0                         0                        1146.5252626012389       -501.6268909066858       0.7909813322662121       0.2087507243447342
0                         0                        1159.0366690039364       -502.14109444145316      0.7884131854430619       0.21131974112261961
0                         0                        1171.5480754066339       -502.6552979762205       0.7858450386199117       0.2138887579005049
0                         0                        1184.0594818093311       -503.16950151098774      0.7832768917967617       0.21645777467839025
0                         0                        1196.5708882120289       -503.6837050457551       0.7807087449736115       0.21902679145627552
0                         0                        1209.0822946147264       -504.1979085805223       0.7781405981504615       0.22159580823416083
0                         0                        1221.5937010174239       -504.71211211528964      0.7755724513273112       0.22416482501204607
0                         0                        1234.1051074201214       -505.22631565005696      0.7730043045041614       0.22673384178993147
0                         0                        1246.616513822819        -505.7405191848243       0.7704361576810109       0.22930285856781676
0                         0                        1259.1279202255164       -506.2547227195916       0.767868010857861        0.23187187534570214
0                         0                        1271.6393266282137       -506.768926254359        0.765299864034711        0.2344408921235874
0                         0                        1284.1507330309114       -507.28312978912624      0.7627317172115609       0.2370099089014728
0                         0                        1296.6621394336091       -507.79733332389344      0.7601635703884106       0.23957892567935815
0                         0                        1309.1735458363064       -508.3115368586608       0.7575954235652608       0.24214794245724344
0                         0                        1321.684952239004        -508.82574039342813      0.7550272767421105       0.24471695923512876
0                         0                        1334.1963586417014       -509.33994392819545      0.7524591299189607       0.2472859760130141
0                         0                        1346.707765044399        -509.85414746296277      0.7498909830958106       0.24985499279089946
0                         0                        1359.2191714470964       -510.36835099773015      0.7473228362726603       0.25242400956878475
0                         0                        1371.7305778497941       -510.8825545324975       0.7447546894495103       0.25499302634667004
0                         0                        1384.2419842524914       -511.3967580672649       0.7421865426263602       0.25756204312455533
0                         0                        1396.753390655189        -511.9109616020323       0.7396183958032099       0.2601310599024406
0                         0                        1409.2647970578864       -512.4251651367997       0.7370502489800597       0.26270007668032586
0                         0                        1421.776203460584        -512.9393686715674       0.7344821021569092       0.265269093458211
0                         0                        1434.2876098632814       -513.4535722063346       0.7319139553337594       0.26783811023609644
0                         0                        1446.7990162659792       -513.967775741102        0.7293458085106088       0.2704071270139817
0                         0                        1459.3104226686764       -514.4819792758693       0.726777661687459        0.272976143791867
0                         0                        1471.821829071374        -514.9961828106367       0.7242095148643085       0.27554516056975226
0                         0                        1484.3332354740712       -515.510386345404        0.7216413680411587       0.2781141773476376
0                         0                        1496.8446418767685       -516.0245898801714       0.7190732212180083       0.2806831941255228
0                         0                        1509.3560482794662       -516.5387934149387       0.7165050743948584       0.2832522109034082
0                         0                        1521.867454682164        -517.0529969497062       0.7139369275717079       0.2858212276812934
0                         0                        1534.3788610848615       -517.5672004844733       0.7113687807485581       0.2883902444591788
0                         0                        1546.8902674875592       -518.0814040192408       0.7088006339254075       0.2909592612370641
0                         0                        1559.4016738902562       -518.5956075540081       0.7062324871022579       0.2935282780149494
0                         0                        1571.9130802929535       -519.1098110887755       0.7036643402791073       0.2960972947928346
0                         0                        1584.4244866956512       -519.6240146235427       0.7010961934559576       0.29866631157072
0                         0                        1596.935893098349        -520.1382181583102       0.6985280466328069       0.3012353283486053
0                         0                        1609.4472995010465       -520.6524216930775       0.6959598998096571       0.3038043451264907
0                         0                        1621.958705903744        -521.166625227845        0.6933917529865068       0.306373361904376
0                         0                        1634.4701123064413       -521.6808287626121       0.690823606163357        0.30894237868226126
0                         0                        1646.9815187091388       -522.1950322973797       0.6882554593402065       0.31151139546014645
0                         0                        1659.4929251118363       -522.7092358321469       0.6856873125170567       0.31408041223803185
0                         0                        1672.0043315145335       -523.2234393669142       0.6831191656939062       0.316649429015917
0                         0                        1684.515737917231        -523.7376429016815       0.6805510188707564       0.3192184457938024
0                         0                        1697.0271443199285       -524.251846436449        0.6779828720476059       0.32178746257168767
0                         0                        1709.538550722626        -524.7660499712163       0.675414725224456        0.324356479349573
0                         0                        1722.0499571253235       -525.2802535059838       0.6728465784013055       0.3269254961274582
0                         0                        1734.5613635280208       -525.794457040751        0.6702784315781558       0.3294945129053436
0                         0                        1747.072769930718        -526.3086605755185       0.6677102847550052       0.3320635296832288
0                         0                        1759.584176333416        -526.8228641102858       0.6651421379318555       0.33463254646111423
0                         0                        1772.0955827361138       -527.3370676450533       0.6625739911087049       0.3372015632389994
0                         0                        1784.606989138811        -527.8512711798204       0.660005844285555        0.3397705800168848
0                         0                        1797.1183955415083       -528.365474714588        0.6574376974624047       0.34233959679477
0                         0                        1809.629801944206        -528.8796782493552       0.6548695506392547       0.34490861357265545
0                         0                        1822.1412083469038       -529.3938817841226       0.6523014038161042       0.3474776303505407
0                         0                        1834.652614749601        -529.9080853188899       0.6497332569929545       0.35004664712842604
0                         0                        1847.1640211522981       -530.4222888536574       0.647165110169804        0.35261566390631105
0                         0                        1859.675427554996        -530.9364923884247       0.6445969633466541       0.3551846806841966
0                         0                        1872.186833957694        -531.4506959231921       0.6420288165235034       0.3577536974620819
0                         0                        1884.6982403603913       -531.9648994579594       0.6394606697003536       0.3603227142399672
0                         0                        1897.2096467630886       -532.4791029927268       0.636892522877203        0.3628917310178524
0                         0                        1909.7210531657859       -532.993306527494        0.6343243760540533       0.3654607477957377
0                         0                        1922.232459568483        -533.5075100622615       0.6317562292309028       0.36802976457362274
0                         0                        1934.743865971181        -534.0217135970288       0.6291880824077529       0.3705987813515083
0                         0                        1947.2552723738788       -534.5359171317964       0.6266199355846024       0.37316779812939366
0                         0                        1959.766678776576        -535.0501206665637       0.6240517887614525       0.37573681490727895
0                         0                        1972.278085179273        -535.5643242013311       0.6214836419383021       0.37830583168516396
0                         0                        1984.7894915819707       -536.0785277360983       0.6189154951151522       0.3808748484630495
0                         0                        1997.300897984668        -536.5927312708659       0.6163473482920017       0.38344386524093466
0                         0                        2009.8123043873652       -537.106934805633        0.6137792014688519       0.38601288201881995
0                         0                        2022.3237107900625       -537.6211383404006       0.6112110546457014       0.388581898796705
0                         0                        2034.8351171927602       -538.1353418751679       0.6086429078225515       0.39115091557459053
0                         0                        2047.346523595458        -538.6495454099355       0.6060747609994008       0.3937199323524757
0                         0                        2059.8579299981557       -539.1637489447028       0.603506614176251        0.3962889491303612
0                         0                        2072.369336400853        -539.6779524794703       0.6009384673531004       0.39885796590824635
0                         0                        2084.8807428035507       -540.1921560142375       0.5983703205299504       0.40142698268613175
0                         0                        2097.392149206248        -540.706359549005        0.5958021737067999       0.40399599946401693
0                         0                        2109.9035556089457       -541.2205630837724       0.5932340268836501       0.40656501624190233
0                         0                        2122.4149620116436       -541.73476661854         0.5906658800604995       0.4091340330197876
0                         0                        2134.926368414341        -542.2489701533073       0.5880977332373495       0.41170304979767297
0                         0                        2147.4377748170386       -542.7631736880749       0.585529586414199        0.41427206657555804
0                         0                        2159.949181219736        -543.2773772228421       0.5829614395910491       0.4168410833534435
0                         0                        2172.4605876224336       -543.7915807576096       0.5803932927678986       0.4194101001313286
0                         0                        2184.9719940251302       -544.3057842923769       0.5778251459447488       0.42197911690921386
0                         0                        2197.483400427828        -544.8199878271445       0.5752569991215982       0.4245481336870992
0                         0                        2209.9948068305257       -545.3341913619117       0.5726888522984481       0.4271171504649845
0                         0                        2222.506213233224        -545.8483948966795       0.5701207054752975       0.4296861672428697
0                         0                        2235.0176196359207       -546.3625984314466       0.5675525586521476       0.43225518402075497
0                         0                        2247.529026038618        -546.8768019662142       0.564984411828997        0.4348242007986399
0                         0                        2260.0404324413157       -547.3910055009815       0.5624162650058471       0.43739321757652544
0                         0                        2272.551838844014        -547.9052090357491       0.5598481181826963       0.43996223435441084
0                         0                        2285.063245246711        -548.4194125705164       0.5572799713595464       0.4425312511322961
0                         0                        2297.574651649409        -548.9336161052839       0.5547118245363958       0.4451002679101812
0                         0                        2310.0860580521057       -549.4478196400512       0.5521436777132459       0.4476692846880665